 &FCI NORB=  20,NELEC=22,MS2=0,
  ORBSYM=1,1,1,1,1,1,1,1,1,1,1,1,1,1,1,1,1,1,1,1,
  ISYM=1,
 &END
 0.4384221029604679    1    1    1    1
 -0.0003414892706363451    2    1    1    1
 0.244901240260674    2    1    2    1
 0.4296408930799064    2    2    1    1
 0.08833118244195944    2    2    2    1
 0.45907904506708    2    2    2    2
 0.001746705916822161    3    1    1    1
 -0.008620087606822155    3    1    2    1
 -0.002850332737722067    3    1    2    2
 0.005618565021636409    3    1    3    1
 -0.006944046955348311    3    2    1    1
 -0.009170629454686583    3    2    2    1
 -0.009087611101450057    3    2    2    2
 -0.005085110401623912    3    2    3    1
 0.007317848169818483    3    2    3    2
 0.2691452612026185    3    3    1    1
 -0.1145469812057474    3    3    2    1
 0.2535397800260247    3    3    2    2
 -9.777612166269716e-05    3    3    3    1
 0.02806122959960314    3    3    3    2
 0.8825322159790601    3    3    3    3
 -0.003789348491997292    4    1    1    1
 0.00424089860734371    4    1    2    1
 -0.001132104276206542    4    1    2    2
 -0.0003174549841539849    4    1    3    1
 0.0004912355586515324    4    1    3    2
 0.009207986399547159    4    1    3    3
 0.006125917831996174    4    1    4    1
 0.004475946360746849    4    2    1    1
 0.0009080052138721594    4    2    2    1
 0.003715162691106803    4    2    2    2
 0.0001576935639147882    4    2    3    1
 -0.0008625278203940205    4    2    3    2
 -0.01343659992125464    4    2    3    3
 -0.00616711697317202    4    2    4    1
 0.006433270519492322    4    2    4    2
 -0.0003056216832497911    4    3    1    1
 3.188842736487411e-05    4    3    2    1
 -0.0003451602524169774    4    3    2    2
 0.001021409187565402    4    3    3    1
 -0.00125721858313046    4    3    3    2
 0.001280908945408383    4    3    3    3
 4.823018039516902e-05    4    3    4    1
 0.001772863824278402    4    3    4    2
 0.05035219120880458    4    3    4    3
 0.2697329561234186    4    4    1    1
 -0.1169241534463119    4    4    2    1
 0.2528822235851138    4    4    2    2
 0.0006807881980110947    4    4    3    1
 0.02356847452088591    4    4    3    2
 0.7777241829249374    4    4    3    3
 0.01062589455821692    4    4    4    1
 -0.01547215199761485    4    4    4    2
 0.001038652110698213    4    4    4    3
 0.8741486565163727    4    4    4    4
 0.05151315393338277    5    1    1    1
 -0.03292042103234768    5    1    2    1
 0.02073996216577874    5    1    2    2
 0.004012541351147172    5    1    3    1
 -0.006334792568290356    5    1    3    2
 -0.1348365520871216    5    1    3    3
 -0.006051059041685091    5    1    4    1
 0.00586330249198069    5    1    4    2
 -0.0004490082109215071    5    1    4    3
 -0.1328924101088206    5    1    4    4
 0.09166904378042746    5    1    5    1
 -0.04469642187708726    5    2    1    1
 -0.008024954244576044    5    2    2    1
 -0.04069466028125427    5    2    2    2
 -0.0008860666695909617    5    2    3    1
 0.01059568793486082    5    2    3    2
 0.1515739105994422    5    2    3    3
 0.005035636651396514    5    2    4    1
 -0.006151836709267063    5    2    4    2
 0.0005095219358055139    5    2    4    3
 0.1500719263702112    5    2    4    4
 -0.06681018559434879    5    2    5    1
 0.08530623285708738    5    2    5    2
 0.00471631288260501    5    3    1    1
 0.00405208518313851    5    3    2    1
 0.006582572139700227    5    3    2    2
 -0.01298433823115938    5    3    3    1
 0.01227004715595604    5    3    3    2
 -0.01992612343365307    5    3    3    3
 -0.0004430241300470263    5    3    4    1
 0.0006538236690327515    5    3    4    2
 0.0004979452549357457    5    3    4    3
 -0.01771638754715212    5    3    4    4
 0.005855160312401856    5    3    5    1
 -0.006151420924746954    5    3    5    2
 0.03549215724901608    5    3    5    3
 -0.004060808472047228    5    4    1    1
 0.001520539703606561    5    4    2    1
 -0.003163258020851537    5    4    2    2
 -0.0002053692701746539    5    4    3    1
 0.0006139036264756642    5    4    3    2
 0.008794844578233109    5    4    3    3
 -0.01236211431591846    5    4    4    1
 0.0128076168266854    5    4    4    2
 -0.001854685082797544    5    4    4    3
 0.01085725802734156    5    4    4    4
 -0.004173098519134517    5    4    5    1
 0.003872807415454869    5    4    5    2
 -0.0003754121226924527    5    4    5    3
 0.03486912184930979    5    4    5    4
 0.3421702552081303    5    5    1    1
 -0.1009765002787712    5    5    2    1
 0.3210616352262145    5    5    2    2
 0.002445718401201098    5    5    3    1
 0.01169600777358121    5    5    3    2
 0.5958034308990897    5    5    3    3
 0.003063843485281531    5    5    4    1
 -0.005882346248975828    5    5    4    2
 0.0004389356866856462    5    5    4    3
 0.5940212305857544    5    5    4    4
 -0.07398174117825695    5    5    5    1
 0.08852410386737147    5    5    5    2
 -0.01105661668922859    5    5    5    3
 0.005022746576444562    5    5    5    4
 0.5556586704408666    5    5    5    5
 -0.01183462978223702    6    1    1    1
 0.03709920369088548    6    1    2    1
 -0.007332952047416691    6    1    2    2
 0.0002861397813898004    6    1    3    1
 0.005415563977825492    6    1    3    2
 0.04328663426753532    6    1    3    3
 0.00256273604764607    6    1    4    1
 -0.002614741637320434    6    1    4    2
 0.0001871141159573241    6    1    4    3
 0.04216821980012862    6    1    4    4
 -0.01549106086097024    6    1    5    1
 0.05374517269327495    6    1    5    2
 -0.002633677184449577    6    1    5    3
 0.002065764056420136    6    1    5    4
 0.01725919612782215    6    1    5    5
 0.07580571987537582    6    1    6    1
 0.02763781168019608    6    2    1    1
 -0.0294809433159994    6    2    2    1
 -0.004311754108233035    6    2    2    2
 0.005039730730432793    6    2    3    1
 0.001382388352797396    6    2    3    2
 -0.0348562376372513    6    2    3    3
 -0.002648463734073468    6    2    4    1
 0.001640382918363072    6    2    4    2
 -5.17347184827225e-05    6    2    4    3
 -0.03385325325692438    6    2    4    4
 0.05532169271163584    6    2    5    1
 0.00355082468641781    6    2    5    2
 -0.0005510783042174983    6    2    5    3
 -0.001154831006836674    6    2    5    4
 -0.01791134806046992    6    2    5    5
 0.05172883912302951    6    2    6    1
 0.09112916751987146    6    2    6    2
 0.004433956541018156    6    3    1    1
 0.01697964017106458    6    3    2    1
 0.009698564309955278    6    3    2    2
 0.003591989875156732    6    3    3    1
 -0.006012845406116669    6    3    3    2
 -0.02693798468902773    6    3    3    3
 -0.0001496545371922832    6    3    4    1
 0.000602275372982779    6    3    4    2
 -0.0001655169338103669    6    3    4    3
 -0.02306850641146617    6    3    4    4
 0.003090781773327163    6    3    5    1
 -0.0078011026533217    6    3    5    2
 -0.009866600898191002    6    3    5    3
 -0.0003600675185642463    6    3    5    4
 -0.01317887300844858    6    3    5    5
 -0.001910859625619549    6    3    6    1
 -0.002106338965748552    6    3    6    2
 0.005591830229777601    6    3    6    3
 0.00140784655787264    6    4    1    1
 -0.002580601195994676    6    4    2    1
 0.0001681332934820593    6    4    2    2
 0.0001304093553507904    6    4    3    1
 -1.791903473421044e-05    6    4    3    2
 -0.001710657555507185    6    4    3    3
 0.003803665589149437    6    4    4    1
 -0.004089515353138822    6    4    4    2
 -0.001683812209117932    6    4    4    3
 -0.002214563540343023    6    4    4    4
 0.001926047505055072    6    4    5    1
 -0.0008865840263722277    6    4    5    2
 3.687105698149322e-05    6    4    5    3
 -0.01094538938703465    6    4    5    4
 -0.0007264891278839564    6    4    5    5
 -0.0002717413201602108    6    4    6    1
 0.001504574490808    6    4    6    2
 -6.498579836063376e-05    6    4    6    3
 0.003578300954192775    6    4    6    4
 0.02298107223523671    6    5    1    1
 0.1419799913355452    6    5    2    1
 0.06891047876159077    6    5    2    2
 -0.003884255231086833    6    5    3    1
 -0.01002080629204335    6    5    3    2
 -0.1445980738021751    6    5    3    3
 0.0002493061656915185    6    5    4    1
 0.003155795569807826    6    5    4    2
 -0.0002342542988188047    6    5    4    3
 -0.1451986978763269    6    5    4    4
 0.01664947090451123    6    5    5    1
 -0.04075514725422141    6    5    5    2
 0.005227411140360958    6    5    5    3
 -0.001869685575040647    6    5    5    4
 -0.1067840115908597    6    5    5    5
 0.007913489487899892    6    5    6    1
 -0.006360105603821413    6    5    6    2
 0.01406779612565822    6    5    6    3
 -0.0007277637716236151    6    5    6    4
 0.1088848788699901    6    5    6    5
 0.4190669106469649    6    6    1    1
 0.2244467590978537    6    6    2    1
 0.493237019125745    6    6    2    2
 -0.006688561812361071    6    6    3    1
 -0.01231529968450302    6    6    3    2
 0.1975966889376257    6    6    3    3
 0.001391682240456092    6    6    4    1
 0.003755346602455027    6    6    4    2
 -0.0001882908266815119    6    6    4    3
 0.1951120066790679    6    6    4    4
 0.00549814950644946    6    6    5    1
 -0.03130862581924639    6    6    5    2
 0.008457753774470131    6    6    5    3
 -0.001507807194792272    6    6    5    4
 0.2714903085239859    6    6    5    5
 0.03888196667687518    6    6    6    1
 -0.0006547253220106702    6    6    6    2
 0.01971680485242695    6    6    6    3
 -0.001450637353727383    6    6    6    4
 0.159000257990964    6    6    6    5
 0.6552102546241455    6    6    6    6
 0.001246338100970511    7    1    1    1
 -0.0007725661789706682    7    1    2    1
 0.00163032190482077    7    1    2    2
 -0.0002292077291455441    7    1    3    1
 0.0001167190259924725    7    1    3    2
 -0.001003080363692332    7    1    3    3
 0.005814554848147872    7    1    4    1
 -0.004719603245746028    7    1    4    2
 0.0001912894040269959    7    1    4    3
 -0.001493160695739719    7    1    4    4
 -0.0003867050137102862    7    1    5    1
 7.901385036237295e-05    7    1    5    2
 -9.314547625167654e-05    7    1    5    3
 0.00224248213681503    7    1    5    4
 -0.001488799337601548    7    1    5    5
 0.0001470667470629327    7    1    6    1
 0.0002147886524356554    7    1    6    2
 0.0001443608779272429    7    1    6    3
 -0.001471031685097666    7    1    6    4
 0.0008217665260080234    7    1    6    5
 0.0004709392538710539    7    1    6    6
 0.06711503777683867    7    1    7    1
 -0.001390131876855824    7    2    1    1
 0.002811498013780881    7    2    2    1
 -0.0007770757087434366    7    2    2    2
 7.092191736602504e-05    7    2    3    1
 -5.487112441754276e-05    7    2    3    2
 0.001612390422561672    7    2    3    3
 -0.004471484848082114    7    2    4    1
 0.003630716332624045    7    2    4    2
 -0.0003313381447611949    7    2    4    3
 0.002022597925407764    7    2    4    4
 -0.0007365709613223316    7    2    5    1
 0.0006545349126198361    7    2    5    2
 8.072418817024013e-05    7    2    5    3
 -0.001910767547112001    7    2    5    4
 0.001372049049172972    7    2    5    5
 0.0005938558617750751    7    2    6    1
 -0.0006114624135910969    7    2    6    2
 -5.228819187503352e-05    7    2    6    3
 0.001208261991061429    7    2    6    4
 0.0002041837889720267    7    2    6    5
 0.001474434189796249    7    2    6    6
 -0.05379926534590775    7    2    7    1
 0.04325302523197386    7    2    7    2
 -0.0007298211571205568    7    3    1    1
 0.0002527562115271185    7    3    2    1
 -0.000404346267889551    7    3    2    2
 -0.000401205719473305    7    3    3    1
 0.0005634679002045798    7    3    3    2
 0.002857094551179087    7    3    3    3
 0.0003347148276036297    7    3    4    1
 -0.0004948316813622154    7    3    4    2
 -0.005502009121694421    7    3    4    3
 0.002312572200225254    7    3    4    4
 -0.00110755991767712    7    3    5    1
 0.001054692744065307    7    3    5    2
 0.0006763479106531935    7    3    5    3
 0.000360154088071923    7    3    5    4
 0.001057197333672248    7    3    5    5
 0.0004804681445450128    7    3    6    1
 -0.0004186686546637034    7    3    6    2
 -0.0003616055487457194    7    3    6    3
 0.0001140047488791457    7    3    6    4
 -0.0003841253454142568    7    3    6    5
 -0.000185033399718215    7    3    6    6
 0.002715387662915885    7    3    7    1
 -0.002114937496827033    7    3    7    2
 0.001073252242645797    7    3    7    3
 0.01675889542997366    7    4    1    1
 -0.008120668766592381    7    4    2    1
 0.009929757527747409    7    4    2    2
 0.0009028662212106098    7    4    3    1
 -0.002905462774202761    7    4    3    2
 -0.05458964163944756    7    4    3    3
 -0.002634539049784469    7    4    4    1
 0.002810152444428487    7    4    4    2
 4.177525602407731e-05    7    4    4    3
 -0.06442254040858036    7    4    4    4
 0.02474115776416265    7    4    5    1
 -0.0228698196478837    7    4    5    2
 0.002312544173878814    7    4    5    3
 -0.001061563401992755    7    4    5    4
 -0.02584556806712682    7    4    5    5
 -0.01034136323027042    7    4    6    1
 0.009289425886838303    7    4    6    2
 0.001885872494579449    7    4    6    3
 0.0004029894711476044    7    4    6    4
 0.007992814506039295    7    4    6    5
 0.002938205603716252    7    4    6    6
 -0.002507021900308125    7    4    7    1
 0.001595564470687163    7    4    7    2
 -0.0006199301643374896    7    4    7    3
 0.01294136232008075    7    4    7    4
 -0.002605300036564521    7    5    1    1
 0.0006543245656522017    7    5    2    1
 -0.001229294994738099    7    5    2    2
 -0.0003272459754621782    7    5    3    1
 0.0006369686752763972    7    5    3    2
 0.008624857280748563    7    5    3    3
 0.005023090918877391    7    5    4    1
 -0.004399516816267154    7    5    4    2
 0.0004110710453918093    7    5    4    3
 0.007957188558546205    7    5    4    4
 -0.005019122126802178    7    5    5    1
 0.004650708406734975    7    5    5    2
 -0.0003502229150222093    7    5    5    3
 -0.00128342139781432    7    5    5    4
 0.004436356319475912    7    5    5    5
 0.002154829979557549    7    5    6    1
 -0.00156749730033364    7    5    6    2
 -0.0002931573796691377    7    5    6    3
 -3.625991588283483e-05    7    5    6    4
 -0.001407307853684938    7    5    6    5
 -0.0007481260734249565    7    5    6    6
 0.03754005951302102    7    5    7    1
 -0.02958232057373735    7    5    7    2
 0.001650525531980245    7    5    7    3
 -0.003280827127713294    7    5    7    4
 0.02576221694529189    7    5    7    5
 0.0009102235946620919    7    6    1    1
 0.0002753453976602331    7    6    2    1
 0.0004278706277122378    7    6    2    2
 0.0001652651754686371    7    6    3    1
 -0.0002722423174067492    7    6    3    2
 -0.003382713903644721    7    6    3    3
 -0.002454864728767901    7    6    4    1
 0.002124208506044524    7    6    4    2
 0.0001472747220206034    7    6    4    3
 -0.003103963374335282    7    6    4    4
 0.001989801429698634    7    6    5    1
 -0.001613445468144987    7    6    5    2
 0.0001086471366679279    7    6    5    3
 0.0001451457118446523    7    6    5    4
 -0.001666802048554852    7    6    5    5
 -0.0004017877460139835    7    6    6    1
 0.000924711492494342    7    6    6    2
 0.0001291221024541633    7    6    6    3
 0.0001901444672860332    7    6    6    4
 0.0007063660617481209    7    6    6    5
 0.0007861479326744599    7    6    6    6
 -0.02115026324308233    7    6    7    1
 0.01677620796750682    7    6    7    2
 -0.0009422154739617383    7    6    7    3
 0.001502320470306035    7    6    7    4
 -0.01369325704899557    7    6    7    5
 0.007433820954290028    7    6    7    6
 0.4443788298665829    7    7    1    1
 -0.2078881913368641    7    7    2    1
 0.3554780582588565    7    7    2    2
 0.009933013612659875    7    7    3    1
 -0.003881130926802837    7    7    3    2
 0.2775595577897399    7    7    3    3
 -0.00973879976349694    7    7    4    1
 0.006461750014628875    7    7    4    2
 -0.0006636890392288336    7    7    4    3
 0.2848867307297428    7    7    4    4
 0.1160392906071359    7    7    5    1
 -0.07834051367105206    7    7    5    2
 0.003991068313733296    7    7    5    3
 -0.006920310337143411    7    7    5    4
 0.3633993134935996    7    7    5    5
 -0.06431546797182319    7    7    6    1
 0.05914504575812558    7    7    6    2
 -0.006595957267270792    7    7    6    3
 0.004021245068124591    7    7    6    4
 -0.07795159161195013    7    7    6    5
 0.2242589952043144    7    7    6    6
 0.004284299352315715    7    7    7    1
 -0.006367697006614908    7    7    7    2
 -0.001560081392926326    7    7    7    3
 0.03904039635984372    7    7    7    4
 -0.005129735220931028    7    7    7    5
 0.001092781269316706    7    7    7    6
 0.6975196317855176    7    7    7    7
 -0.01477842915531813    8    1    1    1
 0.01032665652105692    8    1    2    1
 -0.01446174608128396    8    1    2    2
 -0.0001562833900395266    8    1    3    1
 0.0005426765934940423    8    1    3    2
 0.004799627450254177    8    1    3    3
 0.000700489138587315    8    1    4    1
 -0.0007476190021657159    8    1    4    2
 4.03525925714729e-05    8    1    4    3
 0.004185058336091997    8    1    4    4
 0.007006376931905487    8    1    5    1
 -0.004043193183809621    8    1    5    2
 0.0001474438985589099    8    1    5    3
 -0.000444699957618623    8    1    5    4
 0.01366867102424347    8    1    5    5
 -0.002028818924168795    8    1    6    1
 0.001016998987821078    8    1    6    2
 -0.0006649587117968491    8    1    6    3
 0.0001612400964567963    8    1    6    4
 -0.007827766034217564    8    1    6    5
 -0.001554635772350974    8    1    6    6
 -0.0001493976189577153    8    1    7    1
 0.0003474694079057803    8    1    7    2
 0.0002543650702701744    8    1    7    3
 -0.005968304649491853    8    1    7    4
 0.001108795898150373    8    1    7    5
 -0.0003698890041177461    8    1    7    6
 -0.0266691071424059    8    1    7    7
 0.06808835731350198    8    1    8    1
 0.01539195201846349    8    2    1    1
 -0.01841562524327006    8    2    2    1
 0.01001484445047807    8    2    2    2
 0.0008294892003208325    8    2    3    1
 -0.0006934412394715304    8    2    3    2
 -0.01031422686883305    8    2    3    3
 -0.001131179316706063    8    2    4    1
 0.0009925832131453731    8    2    4    2
 -6.335057989959333e-05    8    2    4    3
 -0.009545035456026167    8    2    4    4
 0.001702348025862932    8    2    5    1
 -0.0005397522271174084    8    2    5    2
 -0.0002860241607717047    8    2    5    3
 0.0001120826831241346    8    2    5    4
 -0.01366251418467759    8    2    5    5
 0.000250624690831717    8    2    6    1
 0.004731198125742062    8    2    6    2
 0.0003469801796680817    8    2    6    3
 6.258665519352189e-05    8    2    6    4
 0.003111404909374138    8    2    6    5
 -0.005823082315000094    8    2    6    6
 0.000278462073409284    8    2    7    1
 -0.0005669352256793925    8    2    7    2
 -0.0003131182701891223    8    2    7    3
 0.006985038570146694    8    2    7    4
 -0.001241514545075568    8    2    7    5
 0.0004108414295047103    8    2    7    6
 0.03524271525995937    8    2    7    7
 -0.056051474453555    8    2    8    1
 0.0471569905687533    8    2    8    2
 0.0006214811124424292    8    3    1    1
 0.0008771634041339589    8    3    2    1
 0.0003020881416041204    8    3    2    2
 0.003106767651486    8    3    3    1
 -0.003580464978512109    8    3    3    2
 -0.003489919473199002    8    3    3    3
 -5.944474354958361e-05    8    3    4    1
 7.722401458866071e-05    8    3    4    2
 -0.0001113878426672949    8    3    4    3
 -0.002864971718635458    8    3    4    4
 0.001555882792185565    8    3    5    1
 -0.001919803443677941    8    3    5    2
 -0.01069963203319476    8    3    5    3
 -0.0001183564133458501    8    3    5    4
 -0.0004265724664513603    8    3    5    5
 -0.0007752601014397296    8    3    6    1
 0.0006372983179302246    8    3    6    2
 0.003618708577552154    8    3    6    3
 3.766641842307334e-05    8    3    6    4
 0.0009242484021501433    8    3    6    5
 0.0009256781376764385    8    3    6    6
 7.385214364811772e-05    8    3    7    1
 -8.806794239986666e-05    8    3    7    2
 -0.0005759630085744806    8    3    7    3
 0.000308913702197786    8    3    7    4
 -3.093943331809786e-05    8    3    7    5
 3.364617244719981e-05    8    3    7    6
 0.0004636292981546839    8    3    7    7
 0.002393362668228877    8    3    8    1
 -0.001607170405621581    8    3    8    2
 0.007459520416442309    8    3    8    3
 0.0007484762728531267    8    4    1    1
 -0.0008220919638447639    8    4    2    1
 0.0006822519955315    8    4    2    2
 2.350745046861571e-05    8    4    3    1
 -3.410352583793974e-05    8    4    3    2
 -0.0005741953113966218    8    4    3    3
 0.002892609824330477    8    4    4    1
 -0.00318539281125889    8    4    4    2
 -0.0001034614994869623    8    4    4    3
 -0.0009880165891123006    8    4    4    4
 -0.0003936870663015032    8    4    5    1
 0.0004008945651087438    8    4    5    2
 -2.453686415507721e-05    8    4    5    3
 -0.01066486972429432    8    4    5    4
 -0.001116434447876679    8    4    5    5
 0.0001790271726820076    8    4    6    1
 4.933563769725602e-06    8    4    6    2
 3.495331667709197e-05    8    4    6    3
 0.003344741464484001    8    4    6    4
 0.0003976198290396184    8    4    6    5
 -0.0002136102083505052    8    4    6    6
 -0.0009093939561992061    8    4    7    1
 0.0008102212852228803    8    4    7    2
 -3.729575107788053e-05    8    4    7    3
 -6.840109468270593e-05    8    4    7    4
 9.219026551617625e-05    8    4    7    5
 5.624985111984248e-05    8    4    7    6
 0.001487358751350153    8    4    7    7
 -0.0032540745313264    8    4    8    1
 0.0026091990899561    8    4    8    2
 -0.0001099414393636802    8    4    8    3
 0.007703250456122529    8    4    8    4
 0.03427763177171186    8    5    1    1
 -0.01012974575455072    8    5    2    1
 0.01915105336029099    8    5    2    2
 0.001884000346965206    8    5    3    1
 -0.006520898652396911    8    5    3    2
 -0.1189348423533258    8    5    3    3
 -0.004018845160159571    8    5    4    1
 0.004354330838724723    8    5    4    2
 -0.000340836781801975    8    5    4    3
 -0.1174559679442433    8    5    4    4
 0.0664132731509998    8    5    5    1
 -0.06184036363892673    8    5    5    2
 0.005577624814671938    8    5    5    3
 -0.004086611041581429    8    5    5    4
 -0.06268138326530082    8    5    5    5
 -0.02811735793563722    8    5    6    1
 0.02241992627380357    8    5    6    2
 0.004049239868433937    8    5    6    3
 0.001410567199408053    8    5    6    4
 0.01962628749051186    8    5    6    5
 0.01086192983831093    8    5    6    6
 0.001389532091401277    8    5    7    1
 -0.001831150823442737    8    5    7    2
 -0.000801914390011374    8    5    7    3
 0.01960500780280848    8    5    7    4
 -0.003090733666265248    8    5    7    5
 0.001010569276288286    8    5    7    6
 0.06705868239810778    8    5    7    7
 0.02316606743101896    8    5    8    1
 -0.01347932276326854    8    5    8    2
 0.00193811673473439    8    5    8    3
 -0.001070840383313934    8    5    8    4
 0.06778077688425641    8    5    8    5
 -0.009957585276791548    8    6    1    1
 0.01002916886686844    8    6    2    1
 -0.001434559740375341    8    6    2    2
 -0.001182374184294093    8    6    3    1
 0.002131861492342553    8    6    3    2
 0.03938434248504642    8    6    3    3
 0.00152510750122782    8    6    4    1
 -0.001466664487799567    8    6    4    2
 0.0001219466574670452    8    6    4    3
 0.0388106670216587    8    6    4    4
 -0.02624233178260243    8    6    5    1
 0.02196254309408735    8    6    5    2
 -0.001242579423610635    8    6    5    3
 0.001493123160711402    8    6    5    4
 0.01887492772594881    8    6    5    5
 0.01026021365292517    8    6    6    1
 -0.01067750878785868    8    6    6    2
 -0.0009686005579527914    8    6    6    3
 -0.0006028264391663577    8    6    6    4
 -0.001475844698684648    8    6    6    5
 0.004598280520549325    8    6    6    6
 -0.0004625908290105864    8    6    7    1
 0.0006721760924162742    8    6    7    2
 0.0002978245020884653    8    6    7    3
 -0.006664992242915937    8    6    7    4
 0.001022260294823017    8    6    7    5
 -0.0003311500163285106    8    6    7    6
 -0.02657517352514087    8    6    7    7
 -0.01596910049910492    8    6    8    1
 0.01073740952336182    8    6    8    2
 -0.001304379379981314    8    6    8    3
 0.00076879510893263    8    6    8    4
 -0.02762323683162163    8    6    8    5
 0.01230101160991383    8    6    8    6
 -2.042105015236406e-05    8    7    1    1
 0.000504883057392192    8    7    2    1
 -0.0004151778934486275    8    7    2    2
 0.0001430274612066664    8    7    3    1
 -0.0003500683215825361    8    7    3    2
 -0.005773507892437998    8    7    3    3
 -0.002429270455640164    8    7    4    1
 0.002388813846337171    8    7    4    2
 3.666498426130333e-06    8    7    4    3
 -0.005494672692501355    8    7    4    4
 0.002484503412686762    8    7    5    1
 -0.002425978518739403    8    7    5    2
 7.358983248438351e-05    8    7    5    3
 0.003132373439491335    8    7    5    4
 -0.003893890822934858    8    7    5    5
 -0.0008342203707199787    8    7    6    1
 0.0008690139449437982    8    7    6    2
 0.0002359864898175914    8    7    6    3
 -0.0009216365087765835    8    7    6    4
 0.001217923215640163    8    7    6    5
 -8.388016364266748e-05    8    7    6    6
 -0.009546534358504534    8    7    7    1
 0.008739164572086297    8    7    7    2
 -0.0002631983820712394    8    7    7    3
 0.001055737424145296    8    7    7    4
 0.002252109547865365    8    7    7    5
 -0.0001419114059514003    8    7    7    6
 0.0007588370693473256    8    7    7    7
 -0.000117239808761794    8    7    8    1
 5.613903204625637e-05    8    7    8    2
 -7.044475858619929e-05    8    7    8    3
 0.002256383750852393    8    7    8    4
 0.001110680819322557    8    7    8    5
 -0.0004262534737352033    8    7    8    6
 0.03390666389595341    8    7    8    7
 0.4432138130876989    8    8    1    1
 -0.2115236661601913    8    8    2    1
 0.3582086071384565    8    8    2    2
 0.009310329709738106    8    8    3    1
 -0.000986511960612838    8    8    3    2
 0.339815650484025    8    8    3    3
 -0.00887496354347218    8    8    4    1
 0.005348488011377358    8    8    4    2
 -0.000365003052861693    8    8    4    3
 0.342692142714382    8    8    4    4
 0.08806260997197068    8    8    5    1
 -0.05131134539627336    8    8    5    2
 0.001871150607701621    8    8    5    3
 -0.004627578211839225    8    8    5    4
 0.4078210976651055    8    8    5    5
 -0.05429240233008657    8    8    6    1
 0.04947876585807864    8    8    6    2
 -0.008715915716489725    8    8    6    3
 0.003318217139370743    8    8    6    4
 -0.09153028398619727    8    8    6    5
 0.2256793536895979    8    8    6    6
 0.001204636590876123    8    8    7    1
 -0.003269408051705986    8    8    7    2
 -0.001127386700805436    8    8    7    3
 0.02703482454329872    8    8    7    4
 -0.004032150540045086    8    8    7    5
 0.00102804767399234    8    8    7    6
 0.6180299322395258    8    8    7    7
 -0.03502852764648348    8    8    8    1
 0.04242813991462724    8    8    8    2
 -5.239918428873099e-06    8    8    8    3
 0.001773923304893347    8    8    8    4
 0.05777859752628834    8    8    8    5
 -0.02288619208401852    8    8    8    6
 0.0009809212400665424    8    8    8    7
 0.6730203562677318    8    8    8    8
 0.01009793042254056    9    1    1    1
 0.001453461876277466    9    1    2    1
 0.008490977375051762    9    1    2    2
 0.00106152264718614    9    1    3    1
 -0.001253381868384073    9    1    3    2
 0.00170676432313493    9    1    3    3
 -0.0001574336375520756    9    1    4    1
 0.0001358025669910531    9    1    4    2
 1.593179766723894e-05    9    1    4    3
 0.002056616363885923    9    1    4    4
 0.00244803074606111    9    1    5    1
 -0.001673892224379032    9    1    5    2
 -0.0008354422974781804    9    1    5    3
 -0.0001865577812290734    9    1    5    4
 0.004756198033157707    9    1    5    5
 0.0003446663349069545    9    1    6    1
 -0.0003115172505726314    9    1    6    2
 0.0007449085810440289    9    1    6    3
 -1.310311904774927e-05    9    1    6    4
 0.002836656925831007    9    1    6    5
 0.01028250046377695    9    1    6    6
 -0.0001537585554417308    9    1    7    1
 -0.0002240076926722739    9    1    7    2
 3.596987867814658e-06    9    1    7    3
 0.0007581382098270955    9    1    7    4
 -0.0003004402712297876    9    1    7    5
 9.26258618540873e-05    9    1    7    6
 0.008279289100883554    9    1    7    7
 -0.000788874671705744    9    1    8    1
 0.002118935015876151    9    1    8    2
 -0.0003535923535155232    9    1    8    3
 0.0001328186446310355    9    1    8    4
 0.001046213486596997    9    1    8    5
 -0.0004638577274623588    9    1    8    6
 -7.790920072181372e-05    9    1    8    7
 0.00831867247786562    9    1    8    8
 0.06783671223328457    9    1    9    1
 0.001632235365596731    9    2    1    1
 -0.01330068753421868    9    2    2    1
 -0.003717942528026054    9    2    2    2