 &FCI NORB=  20,NELEC=22,MS2=0,
  ORBSYM=1,1,1,1,1,1,1,1,1,1,1,1,1,1,1,1,1,1,1,1,
  ISYM=1,
 &END
 0.6690390546628595    1    1    1    1
 0.1521097887018907    2    1    1    1
 0.09585544393893704    2    1    2    1
 0.2768709208433031    2    2    1    1
 -0.08753866209945861    2    2    2    1
 0.4953793705318932    2    2    2    2
 0.003782779540418205    3    1    1    1
 0.00204613004425861    3    1    2    1
 -0.000189404299278558    3    1    2    2
 0.001527459292259879    3    1    3    1
 0.003039011856008835    3    2    1    1
 0.002606497665454272    3    2    2    1
 -0.002972945705164947    3    2    2    2
 -0.003725467571982116    3    2    3    1
 0.01396698482276832    3    2    3    2
 0.1688499069456778    3    3    1    1
 -0.0750859991845122    3    3    2    1
 0.391287680671616    3    3    2    2
 -0.008120850673469269    3    3    3    1
 0.003553113641142936    3    3    3    2
 0.88404672251456    3    3    3    3
 -8.556171229213176e-07    4    1    1    1
 -6.05651600650176e-08    4    1    2    1
 -4.158683949386923e-07    4    1    2    2
 -3.209453553804754e-08    4    1    3    1
 6.199025188857955e-08    4    1    3    2
 2.676053075224847e-06    4    1    3    3
 0.001136678305239164    4    1    4    1
 4.067897487319251e-07    4    2    1    1
 -7.040059138299712e-07    4    2    2    1
 1.72480393004303e-06    4    2    2    2
 1.136041772021319e-07    4    2    3    1
 -1.461604959010338e-07    4    2    3    2
 -6.134801583538104e-06    4    2    3    3
 -0.004014388985155467    4    2    4    1
 0.01432250509523013    4    2    4    2
 -1.108333693927058e-07    4    3    1    1
 3.357207737812232e-08    4    3    2    1
 -1.292181159640463e-07    4    3    2    2
 2.36999963342623e-07    4    3    3    1
 -5.939900388696545e-07    4    3    3    2
 7.662161397811114e-07    4    3    3    3
 -0.0005381983810842554    4    3    4    1
 0.0003367884468712172    4    3    4    2
 0.04979003119999283    4    3    4    3
 0.1669542533143167    4    4    1    1
 -0.07639338237293766    4    4    2    1
 0.3923914116196363    4    4    2    2
 -0.006936483177441096    4    4    3    1
 0.002741908970441579    4    4    3    2
 0.7777811269924834    4    4    3    3
 3.119716935223177e-06    4    4    4    1
 -7.149459941119327e-06    4    4    4    2
 1.621418987884965e-07    4    4    4    3
 0.8755532330971855    4    4    4    4
 0.01018890765168993    5    1    1    1
 -0.008305990498553824    5    1    2    1
 -0.001406445208234814    5    1    2    2
 -0.006676963705517572    5    1    3    1
 -0.002589238493884261    5    1    3    2
 -0.004747109174174534    5    1    3    3
 -4.748601275500276e-07    5    1    4    1
 1.050509784340076e-07    5    1    4    2
 8.402345859133991e-09    5    1    4    3
 -0.004894320825154321    5    1    4    4
 0.1358254673542666    5    1    5    1
 -0.03589609896406921    5    2    1    1
 -0.02082378769744168    5    2    2    1
 0.01050229256229088    5    2    2    2
 -0.003501483979703479    5    2    3    1
 -7.228441669438257e-06    5    2    3    2
 0.05706414194457231    5    2    3    3
 1.999781538557559e-07    5    2    4    1
 -7.010023996377095e-07    5    2    4    2
 3.097731229646359e-08    5    2    4    3
 0.05665985153823772    5    2    4    4
 0.04501395218194289    5    2    5    1
 0.02516731238225266    5    2    5    2
 -0.02588949205495654    5    3    1    1
 -0.01264646326185448    5    3    2    1
 0.007710600031240859    5    3    2    2
 -0.001873325203631489    5    3    3    1
 0.004379333604084679    5    3    3    2
 0.03785087048926548    5    3    3    3
 1.713704826464317e-07    5    3    4    1
 -3.124257982130245e-07    5    3    4    2
 1.949367497403125e-07    5    3    4    3
 0.03250868501585431    5    3    4    4
 0.0001836835431023134    5    3    5    1
 0.005639253712548484    5    3    5    2
 0.00496318119923285    5    3    5    3
 -1.542271178405818e-06    5    4    1    1
 -6.256019938860329e-07    5    4    2    1
 2.277265312941956e-07    5    4    2    2
 -1.506448354972982e-08    5    4    3    1
 -1.724715209292336e-08    5    4    3    2
 2.012465121881531e-06    5    4    3    3
 -0.001206831292849416    5    4    4    1
 0.004336918518429838    5    4    4    2
 0.002582007532900809    5    4    4    3
 2.309902070127608e-06    5    4    4    4
 -2.355851564603347e-07    5    4    5    1
 2.404523548094008e-07    5    4    5    2
 2.037873392445134e-07    5    4    5    3
 0.001576656979269377    5    4    5    4
 0.6837966134373735    5    5    1    1
 0.1697485568037932    5    5    2    1
 0.2490001495851894    5    5    2    2
 0.003482348607912801    5    5    3    1
 0.004381531335864117    5    5    3    2
 0.1676638852862364    5    5    3    3
 -7.483511189255867e-07    5    5    4    1
 -2.829763716797359e-08    5    5    4    2
 -3.141173472431378e-08    5    5    4    3
 0.1647002740281517    5    5    4    4
 0.01227947220882774    5    5    5    1
 -0.03951632244757203    5    5    5    2
 -0.02947653729307902    5    5    5    3
 -1.709276488890073e-06    5    5    5    4
 0.7564912269097277    5    5    5    5
 0.01290280251095371    6    1    1    1
 0.01810306785998024    6    1    2    1
 -0.02922473348419392    6    1    2    2
 -0.002033575408290217    6    1    3    1
 0.001419270420671152    6    1    3    2
 0.05824386700650059    6    1    3    3
 5.28698200058868e-07    6    1    4    1
 -1.722267347724001e-06    6    1    4    2
 1.250891106148897e-07    6    1    4    3
 0.05693602761978575    6    1    4    4
 0.01941061520184307    6    1    5    1
 0.01392187740621063    6    1    5    2
 0.002239957662681624    6    1    5    3
 1.228007605771563e-07    6    1    5    4
 0.02180839616034145    6    1    5    5
 0.02607221396317348    6    1    6    1
 0.03396165266377078    6    2    1    1
 -0.02020877148375784    6    2    2    1
 0.05599450933681235    6    2    2    2
 0.003291585013246326    6    2    3    1
 -0.004143699839675226    6    2    3    2
 -0.2222868874540457    6    2    3    3
 -1.995594456111253e-06    6    2    4    1
 5.212761486100815e-06    6    2    4    2
 -3.817351131716715e-07    6    2    4    3
 -0.2187201875437984    6    2    4    4
 0.01403542838999433    6    2    5    1
 -0.02711818329922671    6    2    5    2
 -0.01246884376472004    6    2    5    3
 -8.615102718804931e-07    6    2    5    4
 0.0140499523843424    6    2    5    5
 -0.06347368899704181    6    2    6    1
 0.2016582196580229    6    2    6    2
 -0.005697458575162843    6    3    1    1
 -0.001340871414748344    6    3    2    1
 -0.0007712305074896338    6    3    2    2
 0.005608384085257204    6    3    3    1
 -0.02102470170667494    6    3    3    2
 0.01129304627942393    6    3    3    3
 9.579087120138074e-08    6    3    4    1
 -2.309685205919834e-07    6    3    4    2
 -3.355327717276009e-07    6    3    4    3
 0.00950726263217177    6    3    4    4
 -0.0003038712259900908    6    3    5    1
 0.0001689287660878775    6    3    5    2
 -0.006095544591478513    6    3    5    3
 1.514455488145224e-08    6    3    5    4
 -0.006562281506120551    6    3    5    5
 0.001217880992803345    6    3    6    1
 -0.005957061459784955    6    3    6    2
 0.03377914103165562    6    3    6    3
 4.375198402521607e-07    6    4    1    1
 -8.5558048539775e-07    6    4    2    1
 2.170177718692529e-06    6    4    2    2
 9.777930592491045e-08    6    4    3    1
 -1.71043671154396e-07    6    4    3    2
 -4.174388552563705e-06    6    4    3    3
 0.005495663227747401    6    4    4    1
 -0.02026360710791716    6    4    4    2
 0.000819508941702791    6    4    4    3
 -4.987718925464377e-06    6    4    4    4
 5.763383072163418e-08    6    4    5    1
 -4.825926068107543e-07    6    4    5    2
 -2.34519284036134e-07    6    4    5    3
 -0.006818974696959873    6    4    5    4
 -1.149204391988975e-07    6    4    5    5
 -1.135561221679565e-06    6    4    6    1
 3.562917992939003e-06    6    4    6    2
 -5.308084188847611e-08    6    4    6    3
 0.03288212573559441    6    4    6    4
 0.07938783616464591    6    5    1    1
 0.04092597802163959    6    5    2    1
 -0.03121708567354533    6    5    2    2
 0.001447976687431254    6    5    3    1
 -0.0007580587082573483    6    5    3    2
 -0.08677274884648324    6    5    3    3
 -4.329168335345027e-07    6    5    4    1
 5.863562995226361e-07    6    5    4    2
 -8.510529866206212e-08    6    5    4    3
 -0.0867699800413374    6    5    4    4
 0.009329078728256418    6    5    5    1
 -0.01304613446082378    6    5    5    2
 -0.009543172505408716    6    5    5    3
 -5.920296052447292e-07    6    5    5    4
 0.09221884403630956    6    5    5    5
 -0.003209879917714147    6    5    6    1
 0.03414230864044853    6    5    6    2
 -0.0005492582284272009    6    5    6    3
 6.232594697987251e-07    6    5    6    4
 0.02942734309731073    6    5    6    5
 0.2108988643606158    6    6    1    1
 -0.09706757560595293    6    6    2    1
 0.4707483102253395    6    6    2    2
 -0.003634119118279941    6    6    3    1
 -0.001385271477881031    6    6    3    2
 0.5884972191286612    6    6    3    3
 8.751213904407447e-07    6    6    4    1
 -1.34545771633451e-06    6    6    4    2
 1.69634807741416e-07    6    6    4    3
 0.5867772998565564    6    6    4    4
 0.0009298455535106193    6    6    5    1
 0.03988506958756224    6    6    5    2
 0.02082906045568812    6    6    5    3
 1.294106746659709e-06    6    6    5    4
 0.1945229390971981    6    6    5    5
 0.01381447715064684    6    6    6    1
 -0.08766740305849911    6    6    6    2
 0.00543910608189558    6    6    6    3
 -1.42275439462299e-06    6    6    6    4
 -0.0691463338822868    6    6    6    5
 0.5786676246489819    6    6    6    6
 2.652392491281087e-06    7    1    1    1
 2.063226605579208e-06    7    1    2    1
 -1.668230971246235e-06    7    1    2    2
 8.09927812674972e-08    7    1    3    1
 -1.431238895916452e-07    7    1    3    2
 -8.369575022691937e-07    7    1    3    3
 -0.001077147249373928    7    1    4    1
 0.002961024768251214    7    1    4    2
 -0.0001123689860907127    7    1    4    3
 -7.629989191963412e-07    7    1    4    4
 1.137814289849239e-07    7    1    5    1
 -1.79447968197582e-07    7    1    5    2
 -2.081291781876587e-07    7    1    5    3
 -2.593053296068586e-05    7    1    5    4
 3.29808882328264e-06    7    1    5    5
 8.261555039986656e-07    7    1    6    1
 -1.117980949583712e-06    7    1    6    2
 -9.42853525757897e-08    7    1    6    3
 0.001578234772846159    7    1    6    4
 7.444472525921291e-07    7    1    6    5
 -1.955133725693864e-06    7    1    6    6
 0.01184268237274732    7    1    7    1
 4.709450370512066e-06    7    2    1    1
 1.699368404983062e-06    7    2    2    1
 -1.437171974784905e-06    7    2    2    2
 -1.226255162503262e-07    7    2    3    1
 5.847068395583983e-07    7    2    3    2
 6.114164155803338e-08    7    2    3    3
 0.002823972013870846    7    2    4    1
 -0.007740145776064577    7    2    4    2
 0.0002247619913292258    7    2    4    3
 -3.015926163246019e-07    7    2    4    4
 -4.65503935338005e-07    7    2    5    1
 -5.25357427631986e-07    7    2    5    2
 -2.405414578925995e-07    7    2    5    3
 0.0001309896200346957    7    2    5    4
 4.575595044523474e-06    7    2    5    5
 -9.840459261994786e-08    7    2    6    1
 -4.94594888837008e-07    7    2    6    2
 2.43350927295332e-07    7    2    6    3
 -0.004618715531130121    7    2    6    4
 6.717559072820744e-07    7    2    6    5
 3.569326771593371e-07    7    2    6    6
 -0.03198676637675244    7    2    7    1
 0.08692451671693009    7    2    7    2
 4.880966522786449e-07    7    3    1    1
 -2.771460414087289e-07    7    3    2    1
 8.792988772935094e-07    7    3    2    2
 4.541546723804641e-08    7    3    3    1
 6.140184808118133e-08    7    3    3    2
 -4.681748583501003e-06    7    3    3    3
 -0.0001299069921237081    7    3    4    1
 0.0002366354080103203    7    3    4    2
 0.005797473557779894    7    3    4    3
 -3.834471215488695e-06    7    3    4    4
 5.400339611524901e-08    7    3    5    1
 -4.115184498946353e-07    7    3    5    2
 -1.636892511567512e-07    7    3    5    3
 0.0003173446663849879    7    3    5    4
 2.325287072154722e-07    7    3    5    5
 -8.597804326880302e-07    7    3    6    1
 2.730044700431028e-06    7    3    6    2
 -5.508507446748277e-07    7    3    6    3
 0.0001505200970178673    7    3    6    4
 4.67425593341828e-07    7    3    6    5
 -1.417739498864739e-06    7    3    6    6
 0.000663021437767118    7    3    7    1
 -0.001834748815320395    7    3    7    2
 0.001027459162499808    7    3    7    3
 -0.007278977321913411    7    4    1    1
 0.004565808208518955    7    4    2    1
 -0.01338704161659873    7    4    2    2
 -0.0008810298277317854    7    4    3    1
 0.0009789013484567035    7    4    3    2
 0.05788960029510044    7    4    3    3
 5.057308489107289e-07    7    4    4    1
 -1.280173484284475e-06    7    4    4    2
 -2.966726838080076e-07    7    4    4    3
 0.06834410009153304    7    4    4    4
 -0.001640278641181204    7    4    5    1
 0.005978616097698191    7    4    5    2
 0.003283919540255022    7    4    5    3
 3.240569077849792e-07    7    4    5    4
 -0.003129080883153616    7    4    5    5
 0.01311699788398846    7    4    6    1
 -0.04132141179760229    7    4    6    2
 0.001369972343427792    7    4    6    3
 -1.444865065774873e-06    7    4    6    4
 -0.007242441907410834    7    4    6    5
 0.02017261667332488    7    4    6    6
 -3.930798755463185e-07    7    4    7    1
 1.972665488520758e-06    7    4    7    2
 -9.441760321835629e-07    7    4    7    3
 0.01436114763548385    7    4    7    4
 -3.163294365459478e-07    7    5    1    1
 -1.272132620596615e-07    7    5    2    1
 -1.546845594142317e-07    7    5    2    2
 -6.415658752989291e-08    7    5    3    1
 -5.745468671757861e-08    7    5    3    2
 6.775406484678947e-07    7    5    3    3
 -0.0002214813627270572    7    5    4    1
 0.0006886462781099189    7    5    4    2
 0.0003485281572813928    7    5    4    3
 7.70492927692507e-07    7    5    4    4
 1.292004756209216e-06    7    5    5    1
 5.605630353359184e-07    7    5    5    2
 5.66425831513209e-08    7    5    5    3
 0.0001272540099067804    7    5    5    4
 -2.351257080005474e-07    7    5    5    5
 3.768557960526884e-07    7    5    6    1
 -4.619035160363356e-07    7    5    6    2
 2.476299664963575e-08    7    5    6    3
 -0.00042116539054487    7    5    6    4
 -7.700966218750943e-08    7    5    6    5
 4.022266186174385e-07    7    5    6    6
 0.0009296946720213955    7    5    7    1
 -0.002381193394236228    7    5    7    2
 9.46460999612256e-05    7    5    7    3
 8.285549152656812e-08    7    5    7    4
 0.0001950512568622462    7    5    7    5
 2.93549072803058e-06    7    6    1    1
 1.803175336942253e-07    7    6    2    1
 6.230709573654047e-07    7    6    2    2
 -7.051052434893441e-08    7    6    3    1
 4.544645241604018e-07    7    6    3    2
 -5.019880470803488e-06    7    6    3    3
 0.002657877655135193    7    6    4    1
 -0.007817800181245003    7    6    4    2
 0.0002087503358726627    7    6    4    3
 -5.238124875046071e-06    7    6    4    4
 8.263362844247081e-08    7    6    5    1
 -7.994940545810466e-07    7    6    5    2
 -3.436559994288779e-07    7    6    5    3
 -0.000568927394037516    7    6    5    4
 2.330974580677847e-06    7    6    5    5
 -1.507685520959902e-06    7    6    6    1
 4.085928992868127e-06    7    6    6    2
 -1.702954906854517e-07    7    6    6    3
 0.0001466596657543718    7    6    6    4
 1.04856149979774e-06    7    6    6    5
 -1.827973924328663e-06    7    6    6    6
 -0.02095390264338006    7    6    7    1
 0.05612146744083756    7    6    7    2
 -0.00120159123370195    7    6    7    3
 2.435671564326218e-07    7    6    7    4
 -0.002276040242544808    7    6    7    5
 0.04196497403306876    7    6    7    6
 0.2331139131347502    7    7    1    1
 -0.1255992856354337    7    7    2    1
 0.5320030355810671    7    7    2    2
 0.001014407842281592    7    7    3    1
 -0.006262171217060583    7    7    3    2
 0.278367044682649    7    7    3    3
 -1.509233257047725e-06    7    7    4    1
 5.083497901799538e-06    7    7    4    2
 -6.426948009166036e-07    7    7    4    3
 0.2862054941906885    7    7    4    4
 0.008890206156963293    7    7    5    1
 0.002019870654619006    7    7    5    2
 0.004607660183266033    7    7    5    3
 1.006114762944112e-07    7    7    5    4
 0.1902716591498296    7    7    5    5
 -0.06735731298608741    7    7    6    1
 0.1681484962160932    7    7    6    2
 -0.002991773469805697    7    7    6    3
 3.501121919234647e-06    7    7    6    4
 -0.02357902375989289    7    7    6    5
 0.4257911869983477    7    7    6    6
 -2.835833285502208e-06    7    7    7    1
 -3.386337805740427e-06    7    7    7    2
 2.749229903427906e-06    7    7    7    3
 -0.04154939826937248    7    7    7    4
 -3.988463372541452e-07    7    7    7    5
 2.547821614667857e-06    7    7    7    6
 0.692688913725155    7    7    7    7
 -0.004022481657725959    8    1    1    1
 -0.0003446328950748715    8    1    2    1
 -0.005067857349597033    8    1    2    2
 -0.0001830487479846822    8    1    3    1
 0.0001035910355185426    8    1    3    2
 0.002580891753620821    8    1    3    3
 -5.615087588877778e-08    8    1    4    1
 9.858548176715833e-08    8    1    4    2
 1.734758258341355e-08    8    1    4    3
 0.002309074236276688    8    1    4    4
 0.002129764369113092    8    1    5    1
 0.0005299375782205114    8    1    5    2
 0.000455737676041945    8    1    5    3
 -5.080460979642017e-09    8    1    5    4
 -0.004097633691215778    8    1    5    5
 -0.001560358617613222    8    1    6    1
 0.003468289180175696    8    1    6    2
 -0.0001381071679585289    8    1    6    3
 2.063127947310085e-07    8    1    6    4
 -0.001474983162794617    8    1    6    5
 0.008719191146777647    8    1    6    6
 3.970994273154364e-08    8    1    7    1
 -1.036332250253025e-07    8    1    7    2
 -1.73015452316327e-07    8    1    7    3
 0.002484822156423078    8    1    7    4
 8.336365158508987e-08    8    1    7    5
 -2.543088707720378e-07    8    1    7    6
 -0.009554781602127638    8    1    7    7
 0.01184813603087001    8    1    8    1
 0.0010040051886262    8    2    1    1
 -0.008626760754835407    8    2    2    1
 0.02407260525288532    8    2    2    2
 0.0002051831219711647    8    2    3    1
 -0.0008377432612542704    8    2    3    2
 -0.01751685960408735    8    2    3    3
 -1.30916866627422e-08    8    2    4    1
 2.004634998468264e-07    8    2    4    2
 -7.660680920822006e-08    8    2    4    3
 -0.01635558929528182    8    2    4    4
 0.002677433628605868    8    2    5    1
 0.000761450412813421    8    2    5    2
 -0.00105691209121435    8    2    5    3
 1.614682359580732e-09    8    2    5    4
 -0.00179831012613142    8    2    5    5
 -0.0003458986877363334    8    2    6    1
 0.005870247988059997    8    2    6    2
 -9.620503146813976e-05    8    2    6    3
 -2.933934229626944e-07    8    2    6    4
 0.003532570125778536    8    2    6    5
 -0.02337904278519521    8    2    6    6
 -2.965868943160686e-07    8    2    7    1
 -2.733587803050542e-07    8    2    7    2
 7.197786521072315e-07    8    2    7    3
 -0.01040196119762256    8    2    7    4
 -1.878156120316087e-07    8    2    7    5
 9.332634575609657e-07    8    2    7    6
 0.04671206008846268    8    2    7    7
 -0.03278301698893357    8    2    8    1
 0.09369943149747952    8    2    8    2
 -0.0009401513026334775    8    3    1    1
 -0.0001188750010268559    8    3    2    1
 -0.0005354321563252923    8    3    2    2
 0.001239724036271282    8    3    3    1
 -0.004880035523452023    8    3    3    2
 0.001445704867284758    8    3    3    3
 9.294507316247903e-09    8    3    4    1
 -3.041030245574556e-08    8    3    4    2
 3.342955044685281e-07    8    3    4    3
 0.001071233259064419    8    3    4    4
 5.464669093337228e-05    8    3    5    1
 -0.0001552026116755211    8    3    5    2
 -0.001925229811012936    8    3    5    3
 1.173352828437055e-08    8    3    5    4
 -0.00119172955358306    8    3    5    5
 -8.281061332261587e-05    8    3    6    1
 -0.000294742862870628    8    3    6    2
 0.009930785782877666    8    3    6    3
 2.638326293531624e-08    8    3    6    4
 0.0001657545108199295    8    3    6    5
 0.001112888448862943    8    3    6    6
 -3.780410070499749e-08    8    3    7    1
 1.123144874698251e-07    8    3    7    2
 -2.240938185606272e-07    8    3    7    3
 0.0003221617923930347    8    3    7    4
 -3.606236741071308e-09    8    3    7    5
 7.636785573517583e-09    8    3    7    6
 -0.0009174969095316758    8    3    7    7
 0.0006422732436076305    8    3    8    1
 -0.001988523490755398    8    3    8    2
 0.007330686072811861    8    3    8    3
 -4.82753041783969e-07    8    4    1    1
 1.6134990787544e-07    8    4    2    1
 -4.409533748993113e-07    8    4    2    2
 -4.619987067856647e-08    8    4    3    1
 2.920921803170612e-08    8    4    3    2
 3.652414757773571e-06    8    4    3    3
 0.00115074963429253    8    4    4    1
 -0.004543154123942674    8    4    4    2
 0.0001617184814366387    8    4    4    3
 4.24584358619002e-06    8    4    4    4
 -1.060935067446503e-07    8    4    5    1
 4.363601285423426e-07    8    4    5    2
 1.951965241964226e-07    8    4    5    3
 -0.002053455395085028    8    4    5    4
 -2.573054885866931e-07    8    4    5    5
 9.764606214415194e-07    8    4    6    1
 -2.93373669809095e-06    8    4    6    2
 1.167562314228405e-07    8    4    6    3
 0.00964342494161113    8    4    6    4
 -3.995548621602686e-07    8    4    6    5
 8.367470269883739e-07    8    4    6    6
 0.0005323815227164378    8    4    7    1
 -0.00156759531103508    8    4    7    2
 5.481543117397151e-05    8    4    7    3
 4.146701041775573e-07    8    4    7    4
 -2.126253444957274e-05    8    4    7    5
 -0.0004806670971407436    8    4    7    6
 -1.774510433357346e-06    8    4    7    7
 -3.484572476253921e-07    8    4    8    1
 8.154970945471674e-07    8    4    8    2
 7.82268639158965e-09    8    4    8    3
 0.00745906371937288    8    4    8    4
 0.01129721173445817    8    5    1    1
 0.003536679516288014    8    5    2    1
 0.0006523299998781299    8    5    2    2
 0.0005366185111161705    8    5    3    1
 -0.0004734178272428941    8    5    3    2
 -0.02200144813364612    8    5    3    3
 -1.620701639981326e-07    8    5    4    1
 3.875594399740308e-07    8    5    4    2
 -1.113152806442177e-08    8    5    4    3
 -0.0217677969833573    8    5    4    4
 -0.0008702862978096554    8    5    5    1
 -0.003827261353032615    8    5    5    2
 -0.001897151636917057    8    5    5    3
 -1.110775736073704e-07    8    5    5    4
 0.01160953741902712    8    5    5    5
 -0.004254763641255668    8    5    6    1
 0.01466910777496518    8    5    6    2
 1.59207546338708e-05    8    5    6    3
 2.794267962521732e-07    8    5    6    4
 0.005015022553570923    8    5    6    5
 -0.01181341666691992    8    5    6    6
 8.831721999423051e-08    8    5    7    1
 -1.043155129489434e-07    8    5    7    2
 2.22284542555305e-07    8    5    7    3
 -0.003415530919573956    8    5    7    4
 -6.058458197552718e-08    8    5    7    5
 2.67097237062412e-07    8    5    7    6
 0.006743599028243292    8    5    7    7
 -0.00016889512475418    8    5    8    1
 0.001292661435986675    8    5    8    2
 0.0003176427430875098    8    5    8    3
 -2.040655437829453e-07    8    5    8    4
 0.001644915466249562    8    5    8    5
 -0.01422447857473114    8    6    1    1
 0.006987717742284164    8    6    2    1
 -0.01747170124208634    8    6    2    2
 -0.001722729554496887    8    6    3    1
 0.001636652936496107    8    6    3    2
 0.1105848508098693    8    6    3    3
 1.039840512616857e-06    8    6    4    1
 -2.703213119386756e-06    8    6    4    2
 1.793450512347321e-07    8    6    4    3
 0.1089495696551653    8    6    4    4
 -0.002986856745552885    8    6    5    1
 0.01484471290404687    8    6    5    2
 0.006091487498387529    8    6    5    3
 4.373011879539532e-07    8    6    5    4
 -0.005361753497385088    8    6    5    5
 0.03227786389172989    8    6    6    1
 -0.09861585242141596    8    6    6    2
 0.003155157540630557    8    6    6    3
 -1.969975643231614e-06    8    6    6    4
 -0.01556557433464634    8    6    6    5
 0.03673569185096348    8    6    6    6
 1.812435562151742e-07    8    6    7    1
 8.77646453673011e-07    8    6    7    2
 -1.261150199765237e-06    8    6    7    3
 0.01869482053118783    8    6    7    4
 1.951521644753892e-07    8    6    7    5
 -1.393232156649698e-06    8    6    7    6
 -0.05861394044169493    8    6    7    7
 -0.01465010322337233    8    6    8    1
 0.03255966599122226    8    6    8    2
 -0.0005188266190804987    8    6    8    3
 1.924989417488092e-06    8    6    8    4
 -0.008312031465360923    8    6    8    5
 0.07229753296663723    8    6    8    6
 4.845418978111651e-07    8    7    1    1
 2.921633988531836e-08    8    7    2    1
 -2.020955406745701e-07    8    7    2    2
 -5.740668914916844e-08    8    7    3    1
 2.481137991123693e-07    8    7    3    2
 -2.021612879545391e-06    8    7    3    3
 0.001158416459454731    8    7    4    1
 -0.003842224206129851    8    7    4    2
 0.0001080390059049156    8    7    4    3
 -1.813490637763792e-06    8    7    4    4
 2.093890892098941e-07    8    7    5    1
 -2.584340953309337e-07    8    7    5    2
 -7.411809031899611e-08    8    7    5    3
 -0.0007118692787852055    8    7    5    4
 3.214739181360514e-07    8    7    5    5
 -4.471528478890298e-07    8    7    6    1
 1.560036017576242e-06    8    7    6    2
 -2.67315203472363e-07    8    7    6    3
 0.002922750512604392    8    7    6    4
 3.687011349309606e-07    8    7    6    5
 -1.184144141834323e-06    8    7    6    6
 -0.005571300018591393    8    7    7    1
 0.01673218703572573    8    7    7    2
 -0.0003449651994439048    8    7    7    3
 -1.798999796369956e-07    8    7    7    4
 0.0003845669260947965    8    7    7    5
 0.002565261478534276    8    7    7    6
 4.986821508432724e-07    8    7    7    7
 -2.186917004685022e-07    8    7    8    1
 -1.414154502569362e-09    8    7    8    2
 1.735158463536577e-07    8    7    8    3
 -0.002666332367947018    8    7    8    4
 5.085052930102762e-08    8    7    8    5
 -2.976570216747661e-07    8    7    8    6
 0.03558867423553437    8    7    8    7
 0.2305598572068799    8    8    1    1
 -0.1288631279112263    8    8    2    1
 0.5445552970676477    8    8    2    2
 0.0002683997149023318    8    8    3    1
 -0.005834589308767299    8    8    3    2
 0.3403997718301299    8    8    3    3
 -9.963211129570795e-07    8    8    4    1
 3.580168113609113e-06    8    8    4    2
 -2.42439305190702e-07    8    8    4    3
 0.3433755082994629    8    8    4    4
 0.006754538234697817    8    8    5    1
 0.009831839461034497    8    8    5    2
 0.007816188727374664    8    8    5    3
 2.134636193338947e-07    8    8    5    4
 0.189877819760327    8    8    5    5
 -0.05426871364247467    8    8    6    1
 0.1248811953147048    8    8    6    2
 -0.001451167558203731    8    8    6    3
 3.285917728038836e-06    8    8    6    4
 -0.03313090361653013    8    8    6    5
 0.4621866251396884    8    8    6    6
 -2.816979131587088e-06    8    8    7    1
 -1.870301076487297e-06    8    8    7    2
 1.953574195183738e-06    8    8    7    3
 -0.02965415340548647    8    8    7    4
 -2.795242904239894e-07    8    8    7    5
 2.050007321296556e-06    8    8    7    6
 0.6190993452627923    8    8    7    7
 -0.01594160429807642    8    8    8    1
 0.06509025562564001    8    8    8    2
 -0.001250654366342785    8    8    8    3
 -1.365117428081186e-06    8    8    8    4
 0.005342329074914621    8    8    8    5
 -0.04577114548545307    8    8    8    6
 6.481796437558621e-07    8    8    8    7
 0.6817241591859189    8    8    8    8
 0.001000352446662504    9    1    1    1
 0.003134944466447426    9    1    2    1
 -0.005565575191851026    9    1    2    2
 -1.585017247142289e-05    9    1    3    1
 -0.0003258670766077975    9    1    3    2
 -0.003026685151993635    9    1    3    3
 -2.343349489119078e-08    9    1    4    1
 -6.62025551779869e-08    9    1    4    2
 2.118712675771724e-08    9    1    4    3
 -0.003089853889639037    9    1    4    4
 0.002480473355025459    9    1    5    1
 0.001175898079364686    9    1    5    2
 -0.0003273911046562653    9    1    5    3
 -2.577578199902087e-08    9    1    5    4
 0.001561616782898479    9    1    5    5
 0.001829233438159829    9    1    6    1
 -0.00155206020732248    9    1    6    2
 0.0005787234908998639    9    1    6    3
 -8.528482908452693e-09    9    1    6    4
 0.001312513876696891    9    1    6    5
 -0.004575448696561043    9    1    6    6
 6.312560955339657e-07    9    1    7    1
 -2.897077920446724e-08    9    1    7    2
 -7.310671179443451e-08    9    1    7    3
 0.0005872817421135    9    1    7    4
 1.005873071219187e-07    9    1    7    5
 -1.645122342324216e-07    9    1    7    6
 -0.00711595447138251    9    1    7    7
 -0.0003988018227749713    9    1    8    1
 -0.0007626235269324912    9    1    8    2
 0.0008008166268600482    9    1    8    3
 1.013817764972119e-07    9    1    8    4
 0.0001922883192409636    9    1    8    5
 0.0009779539242889693    9    1    8    6
 -7.872810906750258e-09    9    1    8    7